v 0.20000000000000001 eval {set sim_annotation {0 sending message 7}}
s -t 0.200000000 -Hs 0 -Hd 0 -Ni 0 -Nx 200.53 -Ny 200.08 -Nz 0.00 -Ne -1.000000 -Nl AGT -Nw --- -Ma 0 -Md 0 -Ms 0 -Mt 0 -Is 0.42 -Id -1.42 -It message -Il 200 -If 0 -Ii 0 -Iv 32 
r -t 0.200000000 -Hs 0 -Hd 0 -Ni 0 -Nx 200.53 -Ny 200.08 -Nz 0.00 -Ne -1.000000 -Nl RTR -Nw --- -Ma 0 -Md 0 -Ms 0 -Mt 0 -Is 0.42 -Id -1.42 -It message -Il 200 -If 0 -Ii 0 -Iv 32 
s -t 0.200000000 -Hs 0 -Hd -1 -Ni 0 -Nx 200.53 -Ny 200.08 -Nz 0.00 -Ne -1.000000 -Nl RTR -Nw --- -Ma 0 -Md 0 -Ms 0 -Mt 0 -Is 0.42 -Id -1.42 -It message -Il 220 -If 0 -Ii 0 -Iv 32 
s -t 0.200535000 -Hs 0 -Hd -1 -Ni 0 -Nx 200.53 -Ny 200.08 -Nz 0.00 -Ne -1.000000 -Nl MAC -Nw --- -Ma 0 -Md ffffffff -Ms 0 -Mt 800 -Is 0.42 -Id -1.42 -It message -Il 278 -If 0 -Ii 0 -Iv 32 
r -t 0.202759333 -Hs 5 -Hd 1 -Ni 5 -Nx 200.53 -Ny 100.08 -Nz 0.00 -Ne -1.000000 -Nl MAC -Nw --- -Ma 0 -Md ffffffff -Ms 0 -Mt 800 -Is 0.42 -Id -1.42 -It message -Il 220 -If 0 -Ii 0 -Iv 32 
r -t 0.202759333 -Hs 6 -Hd 1 -Ni 6 -Nx 300.56 -Ny 200.66 -Nz 0.00 -Ne -1.000000 -Nl MAC -Nw --- -Ma 0 -Md ffffffff -Ms 0 -Mt 800 -Is 0.42 -Id -1.42 -It message -Il 220 -If 0 -Ii 0 -Iv 32 
r -t 0.202759334 -Hs 4 -Hd 1 -Ni 4 -Nx 100.31 -Ny 200.86 -Nz 0.00 -Ne -1.000000 -Nl MAC -Nw --- -Ma 0 -Md ffffffff -Ms 0 -Mt 800 -Is 0.42 -Id -1.42 -It message -Il 220 -If 0 -Ii 0 -Iv 32 
r -t 0.202759335 -Hs 2 -Hd 1 -Ni 2 -Nx 200.32 -Ny 300.70 -Nz 0.00 -Ne -1.000000 -Nl MAC -Nw --- -Ma 0 -Md ffffffff -Ms 0 -Mt 800 -Is 0.42 -Id -1.42 -It message -Il 220 -If 0 -Ii 0 -Iv 32 
r -t 0.202759473 -Hs 1 -Hd 1 -Ni 1 -Nx 300.56 -Ny 300.66 -Nz 0.00 -Ne -1.000000 -Nl MAC -Nw --- -Ma 0 -Md ffffffff -Ms 0 -Mt 800 -Is 0.42 -Id -1.42 -It message -Il 220 -If 0 -Ii 0 -Iv 32 
r -t 0.202759473 -Hs 3 -Hd 1 -Ni 3 -Nx 100.33 -Ny 300.61 -Nz 0.00 -Ne -1.000000 -Nl MAC -Nw --- -Ma 0 -Md ffffffff -Ms 0 -Mt 800 -Is 0.42 -Id -1.42 -It message -Il 220 -If 0 -Ii 0 -Iv 32 
r -t 0.202759665 -Hs 7 -Hd 1 -Ni 7 -Nx 200.32 -Ny 0.70 -Nz 0.00 -Ne -1.000000 -Nl MAC -Nw --- -Ma 0 -Md ffffffff -Ms 0 -Mt 800 -Is 0.42 -Id -1.42 -It message -Il 220 -If 0 -Ii 0 -Iv 32 
r -t 0.202759667 -Hs 8 -Hd 1 -Ni 8 -Nx 0.33 -Ny 200.61 -Nz 0.00 -Ne -1.000000 -Nl MAC -Nw --- -Ma 0 -Md ffffffff -Ms 0 -Mt 800 -Is 0.42 -Id -1.42 -It message -Il 220 -If 0 -Ii 0 -Iv 32 
r -t 0.202784333 -Hs 5 -Hd 1 -Ni 5 -Nx 200.53 -Ny 100.08 -Nz 0.00 -Ne -1.000000 -Nl RTR -Nw --- -Ma 0 -Md ffffffff -Ms 0 -Mt 800 -Is 0.42 -Id -1.42 -It message -Il 220 -If 0 -Ii 0 -Iv 32 
