M 0.0 nn 5 x 1000 y 1000 rp AODV
M 0.0 sc cbr cp scenario seed 0.0
M 0.0 prop Propagation/TwoRayGround ant Antenna/OmniAntenna
s -t 2.556838879 -Hs 1 -Hd -2 -Ni 1 -Nx 20.56 -Ny 0.66 -Nz 0.00 -Ne -1.000000 -Nl AGT -Nw --- -Ma 0 -Md 0 -Ms 0 -Mt 0 -Is 1.0 -Id 2.0 -It cbr -Il 512 -If 0 -Ii 0 -Iv 32 -Pn cbr -Pi 0 -Pf 0 -Po 16777215 
r -t 2.556838879 -Hs 1 -Hd -2 -Ni 1 -Nx 20.56 -Ny 0.66 -Nz 0.00 -Ne -1.000000 -Nl RTR -Nw --- -Ma 0 -Md 0 -Ms 0 -Mt 0 -Is 1.0 -Id 2.0 -It cbr -Il 512 -If 0 -Ii 0 -Iv 32 -Pn cbr -Pi 0 -Pf 0 -Po 16777215 
s -t 2.556838879 -Hs 1 -Hd -2 -Ni 1 -Nx 20.56 -Ny 0.66 -Nz 0.00 -Ne -1.000000 -Nl RTR -Nw --- -Ma 0 -Md 0 -Ms 0 -Mt 0 -Is 1.255 -Id -1.255 -It AODV -Il 48 -If 0 -Ii 0 -Iv 30 -P aodv -Pt 0x2 -Ph 1 -Pb 1 -Pd 2 -Pds 0 -Ps 1 -Pss 4 -Pc REQUEST 
s -t 2.556953879 -Hs 1 -Hd -2 -Ni 1 -Nx 20.56 -Ny 0.66 -Nz 0.00 -Ne -1.000000 -Nl MAC -Nw --- -Ma 0 -Md ffffffff -Ms 1 -Mt 800 -Is 1.255 -Id -1.255 -It AODV -Il 106 -If 0 -Ii 0 -Iv 30 -P aodv -Pt 0x2 -Ph 1 -Pb 1 -Pd 2 -Pds 0 -Ps 1 -Pss 4 -Pc REQUEST 
r -t 2.557801945 -Hs 0 -Hd -2 -Ni 0 -Nx 0.53 -Ny 0.08 -Nz 0.00 -Ne -1.000000 -Nl MAC -Nw --- -Ma 0 -Md ffffffff -Ms 1 -Mt 800 -Is 1.255 -Id -1.255 -It AODV -Il 48 -If 0 -Ii 0 -Iv 30 -P aodv -Pt 0x2 -Ph 1 -Pb 1 -Pd 2 -Pds 0 -Ps 1 -Pss 4 -Pc REQUEST 
r -t 2.557802645 -Hs 2 -Hd -2 -Ni 2 -Nx 250.32 -Ny 0.70 -Nz 0.00 -Ne -1.000000 -Nl MAC -Nw --- -Ma 0 -Md ffffffff -Ms 1 -Mt 800 -Is 1.255 -Id -1.255 -It AODV -Il 48 -If 0 -Ii 0 -Iv 30 -P aodv -Pt 0x2 -Ph 1 -Pb 1 -Pd 2 -Pds 0 -Ps 1 -Pss 4 -Pc REQUEST 
r -t 2.557826945 -Hs 0 -Hd -2 -Ni 0 -Nx 0.53 -Ny 0.08 -Nz 0.00 -Ne -1.000000 -Nl RTR -Nw --- -Ma 0 -Md ffffffff -Ms 1 -Mt 800 -Is 1.255 -Id -1.255 -It AODV -Il 48 -If 0 -Ii 0 -Iv 30 -P aodv -Pt 0x2 -Ph 1 -Pb 1 -Pd 2 -Pds 0 -Ps 1 -Pss 4 -Pc REQUEST 
r -t 2.557827645 -Hs 2 -Hd -2 -Ni 2 -Nx 250.32 -Ny 0.70 -Nz 0.00 -Ne -1.000000 -Nl RTR -Nw --- -Ma 0 -Md ffffffff -Ms 1 -Mt 800 -Is 1.255 -Id -1.255 -It AODV -Il 48 -If 0 -Ii 0 -Iv 30 -P aodv -Pt 0x2 -Ph 1 -Pb 1 -Pd 2 -Pds 0 -Ps 1 -Pss 4 -Pc REQUEST 
s -t 2.557827645 -Hs 2 -Hd 1 -Ni 2 -Nx 250.32 -Ny 0.70 -Nz 0.00 -Ne -1.000000 -Nl RTR -Nw --- -Ma 0 -Md 0 -Ms 0 -Mt 0 -Is 2.255 -Id 1.255 -It AODV -Il 44 -If 0 -Ii 0 -Iv 30 -P aodv -Pt 0x4 -Ph 1 -Pd 2 -Pds 4 -Pl 10.000000 -Pc REPLY 
s -t 2.558202645 -Hs 2 -Hd -2 -Ni 2 -Nx 250.32 -Ny 0.70 -Nz 0.00 -Ne -1.000000 -Nl MAC -Nw --- -Ma 0 -Md ffffffff -Ms 2 -Mt 806 -P arp -Po REQUEST -Pms 2 -Ps 2 -Pmd 0 -Pd 1 
s -t 2.558708172 -Hs 0 -Hd -2 -Ni 0 -Nx 0.53 -Ny 0.08 -Nz 0.00 -Ne -1.000000 -Nl RTR -Nw --- -Ma 0 -Md ffffffff -Ms 1 -Mt 800 -Is 0.255 -Id -1.255 -It AODV -Il 48 -If 0 -Ii 0 -Iv 29 -P aodv -Pt 0x2 -Ph 2 -Pb 1 -Pd 2 -Pds 0 -Ps 1 -Pss 4 -Pc REQUEST 
r -t 2.558891145 -Hs 3 -Hd -2 -Ni 3 -Nx 400.33 -Ny 0.61 -Nz 0.00 -Ne -1.000000 -Nl MAC -Nw --- -Ma 0 -Md ffffffff -Ms 2 -Mt 806 -P arp -Po REQUEST -Pms 2 -Ps 2 -Pmd 0 -Pd 1 
r -t 2.558891410 -Hs 1 -Hd -2 -Ni 1 -Nx 20.56 -Ny 0.66 -Nz 0.00 -Ne -1.000000 -Nl MAC -Nw --- -Ma 0 -Md ffffffff -Ms 2 -Mt 806 -P arp -Po REQUEST -Pms 2 -Ps 2 -Pmd 0 -Pd 1 
r -t 2.558891477 -Hs 0 -Hd -2 -Ni 0 -Nx 0.53 -Ny 0.08 -Nz 0.00 -Ne -1.000000 -Nl MAC -Nw --- -Ma 0 -Md ffffffff -Ms 2 -Mt 806 -P arp -Po REQUEST -Pms 2 -Ps 2 -Pmd 0 -Pd 1 
s -t 2.558941477 -Hs 0 -Hd -2 -Ni 0 -Nx 0.53 -Ny 0.08 -Nz 0.00 -Ne -1.000000 -Nl MAC -Nw --- -Ma 0 -Md ffffffff -Ms 0 -Mt 800 -Is 0.255 -Id -1.255 -It AODV -Il 106 -If 0 -Ii 0 -Iv 29 -P aodv -Pt 0x2 -Ph 2 -Pb 1 -Pd 2 -Pds 0 -Ps 1 -Pss 4 -Pc REQUEST 
r -t 2.559789544 -Hs 1 -Hd -2 -Ni 1 -Nx 20.56 -Ny 0.66 -Nz 0.00 -Ne -1.000000 -Nl MAC -Nw --- -Ma 0 -Md ffffffff -Ms 0 -Mt 800 -Is 0.255 -Id -1.255 -It AODV -Il 48 -If 0 -Ii 0 -Iv 29 -P aodv -Pt 0x2 -Ph 2 -Pb 1 -Pd 2 -Pds 0 -Ps 1 -Pss 4 -Pc REQUEST 
r -t 2.559790310 -Hs 2 -Hd -2 -Ni 2 -Nx 250.32 -Ny 0.70 -Nz 0.00 -Ne -1.000000 -Nl MAC -Nw --- -Ma 0 -Md ffffffff -Ms 0 -Mt 800 -Is 0.255 -Id -1.255 -It AODV -Il 48 -If 0 -Ii 0 -Iv 29 -P aodv -Pt 0x2 -Ph 2 -Pb 1 -Pd 2 -Pds 0 -Ps 1 -Pss 4 -Pc REQUEST 
r -t 2.559814544 -Hs 1 -Hd -2 -Ni 1 -Nx 20.56 -Ny 0.66 -Nz 0.00 -Ne -1.000000 -Nl RTR -Nw --- -Ma 0 -Md ffffffff -Ms 0 -Mt 800 -Is 0.255 -Id -1.255 -It AODV -Il 48 -If 0 -Ii 0 -Iv 29 -P aodv -Pt 0x2 -Ph 2 -Pb 1 -Pd 2 -Pds 0 -Ps 1 -Pss 4 -Pc REQUEST 
r -t 2.559815310 -Hs 2 -Hd -2 -Ni 2 -Nx 250.32 -Ny 0.70 -Nz 0.00 -Ne -1.000000 -Nl RTR -Nw --- -Ma 0 -Md ffffffff -Ms 0 -Mt 800 -Is 0.255 -Id -1.255 -It AODV -Il 48 -If 0 -Ii 0 -Iv 29 -P aodv -Pt 0x2 -Ph 2 -Pb 1 -Pd 2 -Pds 0 -Ps 1 -Pss 4 -Pc REQUEST 
s -t 2.560059544 -Hs 1 -Hd -2 -Ni 1 -Nx 20.56 -Ny 0.66 -Nz 0.00 -Ne -1.000000 -Nl MAC -Nw --- -Ma 52e -Md 2 -Ms 1 -Mt 0 
r -t 2.560412310 -Hs 2 -Hd -2 -Ni 2 -Nx 250.32 -Ny 0.70 -Nz 0.00 -Ne -1.000000 -Nl MAC -Nw --- -Ma 52e -Md 2 -Ms 1 -Mt 0 
s -t 2.560422310 -Hs 2 -Hd -2 -Ni 2 -Nx 250.32 -Ny 0.70 -Nz 0.00 -Ne -1.000000 -Nl MAC -Nw --- -Ma 3f4 -Md 1 -Ms 0 -Mt 0 
r -t 2.560727076 -Hs 1 -Hd -2 -Ni 1 -Nx 20.56 -Ny 0.66 -Nz 0.00 -Ne -1.000000 -Nl MAC -Nw --- -Ma 3f4 -Md 1 -Ms 0 -Mt 0 
s -t 2.560737076 -Hs 1 -Hd -2 -Ni 1 -Nx 20.56 -Ny 0.66 -Nz 0.00 -Ne -1.000000 -Nl MAC -Nw --- -Ma 13a -Md 2 -Ms 1 -Mt 806 -P arp -Po REPLY -Pms 1 -Ps 1 -Pmd 2 -Pd 2 
r -t 2.561425842 -Hs 2 -Hd -2 -Ni 2 -Nx 250.32 -Ny 0.70 -Nz 0.00 -Ne -1.000000 -Nl MAC -Nw --- -Ma 13a -Md 2 -Ms 1 -Mt 806 -P arp -Po REPLY -Pms 1 -Ps 1 -Pmd 2 -Pd 2 
s -t 2.561435842 -Hs 2 -Hd -2 -Ni 2 -Nx 250.32 -Ny 0.70 -Nz 0.00 -Ne -1.000000 -Nl MAC -Nw --- -Ma 0 -Md 1 -Ms 0 -Mt 0 
r -t 2.561740608 -Hs 1 -Hd -2 -Ni 1 -Nx 20.56 -Ny 0.66 -Nz 0.00 -Ne -1.000000 -Nl MAC -Nw --- -Ma 0 -Md 1 -Ms 0 -Mt 0 
s -t 2.562029842 -Hs 2 -Hd -2 -Ni 2 -Nx 250.32 -Ny 0.70 -Nz 0.00 -Ne -1.000000 -Nl MAC -Nw --- -Ma 5ae -Md 1 -Ms 2 -Mt 0 
r -t 2.562382608 -Hs 1 -Hd -2 -Ni 1 -Nx 20.56 -Ny 0.66 -Nz 0.00 -Ne -1.000000 -Nl MAC -Nw --- -Ma 5ae -Md 1 -Ms 2 -Mt 0 
s -t 2.562392608 -Hs 1 -Hd -2 -Ni 1 -Nx 20.56 -Ny 0.66 -Nz 0.00 -Ne -1.000000 -Nl MAC -Nw --- -Ma 474 -Md 2 -Ms 0 -Mt 0 
r -t 2.562697373 -Hs 2 -Hd -2 -Ni 2 -Nx 250.32 -Ny 0.70 -Nz 0.00 -Ne -1.000000 -Nl MAC -Nw --- -Ma 474 -Md 2 -Ms 0 -Mt 0 
s -t 2.562707373 -Hs 2 -Hd 1 -Ni 2 -Nx 250.32 -Ny 0.70 -Nz 0.00 -Ne -1.000000 -Nl MAC -Nw --- -Ma 13a -Md 1 -Ms 2 -Mt 800 -Is 2.255 -Id 1.255 -It AODV -Il 102 -If 0 -Ii 0 -Iv 30 -P aodv -Pt 0x4 -Ph 1 -Pd 2 -Pds 4 -Pl 10.000000 -Pc REPLY 
r -t 2.563524139 -Hs 1 -Hd 1 -Ni 1 -Nx 20.56 -Ny 0.66 -Nz 0.00 -Ne -1.000000 -Nl MAC -Nw --- -Ma 13a -Md 1 -Ms 2 -Mt 800 -Is 2.255 -Id 1.255 -It AODV -Il 44 -If 0 -Ii 0 -Iv 30 -P aodv -Pt 0x4 -Ph 1 -Pd 2 -Pds 4 -Pl 10.000000 -Pc REPLY 
s -t 2.563534139 -Hs 1 -Hd -2 -Ni 1 -Nx 20.56 -Ny 0.66 -Nz 0.00 -Ne -1.000000 -Nl MAC -Nw --- -Ma 0 -Md 2 -Ms 0 -Mt 0 
r -t 2.563549139 -Hs 1 -Hd 1 -Ni 1 -Nx 20.56 -Ny 0.66 -Nz 0.00 -Ne -1.000000 -Nl RTR -Nw --- -Ma 13a -Md 1 -Ms 2 -Mt 800 -Is 2.255 -Id 1.255 -It AODV -Il 44 -If 0 -Ii 0 -Iv 30 -P aodv -Pt 0x4 -Ph 1 -Pd 2 -Pds 4 -Pl 10.000000 -Pc REPLY 
s -t 2.563549139 -Hs 1 -Hd 2 -Ni 1 -Nx 20.56 -Ny 0.66 -Nz 0.00 -Ne -1.000000 -Nl RTR -Nw --- -Ma 0 -Md 0 -Ms 0 -Mt 0 -Is 1.0 -Id 2.0 -It cbr -Il 532 -If 0 -Ii 0 -Iv 30 -Pn cbr -Pi 0 -Pf 0 -Po 16777215 
r -t 2.563838905 -Hs 2 -Hd -2 -Ni 2 -Nx 250.32 -Ny 0.70 -Nz 0.00 -Ne -1.000000 -Nl MAC -Nw --- -Ma 0 -Md 2 -Ms 0 -Mt 0 
s -t 2.564008139 -Hs 1 -Hd -2 -Ni 1 -Nx 20.56 -Ny 0.66 -Nz 0.00 -Ne -1.000000 -Nl MAC -Nw --- -Ma 14ee -Md 2 -Ms 1 -Mt 0 
r -t 2.564360905 -Hs 2 -Hd -2 -Ni 2 -Nx 250.32 -Ny 0.70 -Nz 0.00 -Ne -1.000000 -Nl MAC -Nw --- -Ma 14ee -Md 2 -Ms 1 -Mt 0 
s -t 2.564370905 -Hs 2 -Hd -2 -Ni 2 -Nx 250.32 -Ny 0.70 -Nz 0.00 -Ne -1.000000 -Nl MAC -Nw --- -Ma 13b4 -Md 1 -Ms 0 -Mt 0 
r -t 2.564675671 -Hs 1 -Hd -2 -Ni 1 -Nx 20.56 -Ny 0.66 -Nz 0.00 -Ne -1.000000 -Nl MAC -Nw --- -Ma 13b4 -Md 1 -Ms 0 -Mt 0 
s -t 2.564685671 -Hs 1 -Hd 2 -Ni 1 -Nx 20.56 -Ny 0.66 -Nz 0.00 -Ne -1.000000 -Nl MAC -Nw --- -Ma 13a -Md 2 -Ms 1 -Mt 800 -Is 1.0 -Id 2.0 -It cbr -Il 590 -If 0 -Ii 0 -Iv 30 -Pn cbr -Pi 0 -Pf 0 -Po 16777215 
r -t 2.569406437 -Hs 2 -Hd 2 -Ni 2 -Nx 250.32 -Ny 0.70 -Nz 0.00 -Ne -1.000000 -Nl MAC -Nw --- -Ma 13a -Md 2 -Ms 1 -Mt 800 -Is 1.0 -Id 2.0 -It cbr -Il 532 -If 0 -Ii 0 -Iv 30 -Pn cbr -Pi 0 -Pf 1 -Po 16777215 
s -t 2.569416437 -Hs 2 -Hd -2 -Ni 2 -Nx 250.32 -Ny 0.70 -Nz 0.00 -Ne -1.000000 -Nl MAC -Nw --- -Ma 0 -Md 1 -Ms 0 -Mt 0 
r -t 2.569431437 -Hs 2 -Hd 2 -Ni 2 -Nx 250.32 -Ny 0.70 -Nz 0.00 -Ne -1.000000 -Nl AGT -Nw --- -Ma 13a -Md 2 -Ms 1 -Mt 800 -Is 1.0 -Id 2.0 -It cbr -Il 532 -If 0 -Ii 0 -Iv 30 -Pn cbr -Pi 0 -Pf 1 -Po 16777215 
r -t 2.569721203 -Hs 1 -Hd -2 -Ni 1 -Nx 20.56 -Ny 0.66 -Nz 0.00 -Ne -1.000000 -Nl MAC -Nw --- -Ma 0 -Md 1 -Ms 0 -Mt 0 
s -t 4.558197188 -Hs 1 -Hd -2 -Ni 1 -Nx 20.56 -Ny 0.66 -Nz 0.00 -Ne -1.000000 -Nl AGT -Nw --- -Ma 0 -Md 0 -Ms 0 -Mt 0 -Is 1.0 -Id 2.0 -It cbr -Il 512 -If 0 -Ii 1 -Iv 32 -Pn cbr -Pi 1 -Pf 0 -Po 16777215 
r -t 4.558197188 -Hs 1 -Hd -2 -Ni 1 -Nx 20.56 -Ny 0.66 -Nz 0.00 -Ne -1.000000 -Nl RTR -Nw --- -Ma 0 -Md 0 -Ms 0 -Mt 0 -Is 1.0 -Id 2.0 -It cbr -Il 512 -If 0 -Ii 1 -Iv 32 -Pn cbr -Pi 1 -Pf 0 -Po 16777215 
s -t 4.558197188 -Hs 1 -Hd 2 -Ni 1 -Nx 20.56 -Ny 0.66 -Nz 0.00 -Ne -1.000000 -Nl RTR -Nw --- -Ma 0 -Md 0 -Ms 0 -Mt 0 -Is 1.0 -Id 2.0 -It cbr -Il 532 -If 0 -Ii 1 -Iv 30 -Pn cbr -Pi 1 -Pf 0 -Po 16777215 
s -t 4.558812188 -Hs 1 -Hd -2 -Ni 1 -Nx 20.56 -Ny 0.66 -Nz 0.00 -Ne -1.000000 -Nl MAC -Nw --- -Ma 14ee -Md 2 -Ms 1 -Mt 0 
r -t 4.559164953 -Hs 2 -Hd -2 -Ni 2 -Nx 250.32 -Ny 0.70 -Nz 0.00 -Ne -1.000000 -Nl MAC -Nw --- -Ma 14ee -Md 2 -Ms 1 -Mt 0 
s -t 4.559174953 -Hs 2 -Hd -2 -Ni 2 -Nx 250.32 -Ny 0.70 -Nz 0.00 -Ne -1.000000 -Nl MAC -Nw --- -Ma 13b4 -Md 1 -Ms 0 -Mt 0 
r -t 4.559479719 -Hs 1 -Hd -2 -Ni 1 -Nx 20.56 -Ny 0.66 -Nz 0.00 -Ne -1.000000 -Nl MAC -Nw --- -Ma 13b4 -Md 1 -Ms 0 -Mt 0 
s -t 4.559489719 -Hs 1 -Hd 2 -Ni 1 -Nx 20.56 -Ny 0.66 -Nz 0.00 -Ne -1.000000 -Nl MAC -Nw --- -Ma 13a -Md 2 -Ms 1 -Mt 800 -Is 1.0 -Id 2.0 -It cbr -Il 590 -If 0 -Ii 1 -Iv 30 -Pn cbr -Pi 1 -Pf 0 -Po 16777215 
r -t 4.564210485 -Hs 2 -Hd 2 -Ni 2 -Nx 250.32 -Ny 0.70 -Nz 0.00 -Ne -1.000000 -Nl MAC -Nw --- -Ma 13a -Md 2 -Ms 1 -Mt 800 -Is 1.0 -Id 2.0 -It cbr -Il 532 -If 0 -Ii 1 -Iv 30 -Pn cbr -Pi 1 -Pf 1 -Po 16777215 
s -t 4.564220485 -Hs 2 -Hd -2 -Ni 2 -Nx 250.32 -Ny 0.70 -Nz 0.00 -Ne -1.000000 -Nl MAC -Nw --- -Ma 0 -Md 1 -Ms 0 -Mt 0 
r -t 4.564235485 -Hs 2 -Hd 2 -Ni 2 -Nx 250.32 -Ny 0.70 -Nz 0.00 -Ne -1.000000 -Nl AGT -Nw --- -Ma 13a -Md 2 -Ms 1 -Mt 800 -Is 1.0 -Id 2.0 -It cbr -Il 532 -If 0 -Ii 1 -Iv 30 -Pn cbr -Pi 1 -Pf 1 -Po 16777215 
r -t 4.564525251 -Hs 1 -Hd -2 -Ni 1 -Nx 20.56 -Ny 0.66 -Nz 0.00 -Ne -1.000000 -Nl MAC -Nw --- -Ma 0 -Md 1 -Ms 0 -Mt 0 
s -t 7.214778814 -Hs 1 -Hd -2 -Ni 1 -Nx 20.56 -Ny 0.66 -Nz 0.00 -Ne -1.000000 -Nl AGT -Nw --- -Ma 0 -Md 0 -Ms 0 -Mt 0 -Is 1.0 -Id 2.0 -It cbr -Il 512 -If 0 -Ii 2 -Iv 32 -Pn cbr -Pi 2 -Pf 0 -Po 16777215 
r -t 7.214778814 -Hs 1 -Hd -2 -Ni 1 -Nx 20.56 -Ny 0.66 -Nz 0.00 -Ne -1.000000 -Nl RTR -Nw --- -Ma 0 -Md 0 -Ms 0 -Mt 0 -Is 1.0 -Id 2.0 -It cbr -Il 512 -If 0 -Ii 2 -Iv 32 -Pn cbr -Pi 2 -Pf 0 -Po 16777215 
s -t 7.214778814 -Hs 1 -Hd 2 -Ni 1 -Nx 20.56 -Ny 0.66 -Nz 0.00 -Ne -1.000000 -Nl RTR -Nw --- -Ma 0 -Md 0 -Ms 0 -Mt 0 -Is 1.0 -Id 2.0 -It cbr -Il 532 -If 0 -Ii 2 -Iv 30 -Pn cbr -Pi 2 -Pf 0 -Po 16777215 
s -t 7.215093814 -Hs 1 -Hd -2 -Ni 1 -Nx 20.56 -Ny 0.66 -Nz 0.00 -Ne -1.000000 -Nl MAC -Nw --- -Ma 14ee -Md 2 -Ms 1 -Mt 0 
r -t 7.215446580 -Hs 2 -Hd -2 -Ni 2 -Nx 250.32 -Ny 0.70 -Nz 0.00 -Ne -1.000000 -Nl MAC -Nw --- -Ma 14ee -Md 2 -Ms 1 -Mt 0 
s -t 7.215456580 -Hs 2 -Hd -2 -Ni 2 -Nx 250.32 -Ny 0.70 -Nz 0.00 -Ne -1.000000 -Nl MAC -Nw --- -Ma 13b4 -Md 1 -Ms 0 -Mt 0 
r -t 7.215761346 -Hs 1 -Hd -2 -Ni 1 -Nx 20.56 -Ny 0.66 -Nz 0.00 -Ne -1.000000 -Nl MAC -Nw --- -Ma 13b4 -Md 1 -Ms 0 -Mt 0 
s -t 7.215771346 -Hs 1 -Hd 2 -Ni 1 -Nx 20.56 -Ny 0.66 -Nz 0.00 -Ne -1.000000 -Nl MAC -Nw --- -Ma 13a -Md 2 -Ms 1 -Mt 800 -Is 1.0 -Id 2.0 -It cbr -Il 590 -If 0 -Ii 2 -Iv 30 -Pn cbr -Pi 2 -Pf 0 -Po 16777215 
r -t 7.220492112 -Hs 2 -Hd 2 -Ni 2 -Nx 250.32 -Ny 0.70 -Nz 0.00 -Ne -1.000000 -Nl MAC -Nw --- -Ma 13a -Md 2 -Ms 1 -Mt 800 -Is 1.0 -Id 2.0 -It cbr -Il 532 -If 0 -Ii 2 -Iv 30 -Pn cbr -Pi 2 -Pf 1 -Po 16777215 
s -t 7.220502112 -Hs 2 -Hd -2 -Ni 2 -Nx 250.32 -Ny 0.70 -Nz 0.00 -Ne -1.000000 -Nl MAC -Nw --- -Ma 0 -Md 1 -Ms 0 -Mt 0 
r -t 7.220517112 -Hs 2 -Hd 2 -Ni 2 -Nx 250.32 -Ny 0.70 -Nz 0.00 -Ne -1.000000 -Nl AGT -Nw --- -Ma 13a -Md 2 -Ms 1 -Mt 800 -Is 1.0 -Id 2.0 -It cbr -Il 532 -If 0 -Ii 2 -Iv 30 -Pn cbr -Pi 2 -Pf 1 -Po 16777215 
r -t 7.220806878 -Hs 1 -Hd -2 -Ni 1 -Nx 20.56 -Ny 0.66 -Nz 0.00 -Ne -1.000000 -Nl MAC -Nw --- -Ma 0 -Md 1 -Ms 0 -Mt 0 
s -t 9.670011808 -Hs 1 -Hd -2 -Ni 1 -Nx 20.56 -Ny 0.66 -Nz 0.00 -Ne -1.000000 -Nl AGT -Nw --- -Ma 0 -Md 0 -Ms 0 -Mt 0 -Is 1.0 -Id 2.0 -It cbr -Il 512 -If 0 -Ii 3 -Iv 32 -Pn cbr -Pi 3 -Pf 0 -Po 16777215 
r -t 9.670011808 -Hs 1 -Hd -2 -Ni 1 -Nx 20.56 -Ny 0.66 -Nz 0.00 -Ne -1.000000 -Nl RTR -Nw --- -Ma 0 -Md 0 -Ms 0 -Mt 0 -Is 1.0 -Id 2.0 -It cbr -Il 512 -If 0 -Ii 3 -Iv 32 -Pn cbr -Pi 3 -Pf 0 -Po 16777215 
s -t 9.670011808 -Hs 1 -Hd 2 -Ni 1 -Nx 20.56 -Ny 0.66 -Nz 0.00 -Ne -1.000000 -Nl RTR -Nw --- -Ma 0 -Md 0 -Ms 0 -Mt 0 -Is 1.0 -Id 2.0 -It cbr -Il 532 -If 0 -Ii 3 -Iv 30 -Pn cbr -Pi 3 -Pf 0 -Po 16777215 
s -t 9.670426808 -Hs 1 -Hd -2 -Ni 1 -Nx 20.56 -Ny 0.66 -Nz 0.00 -Ne -1.000000 -Nl MAC -Nw --- -Ma 14ee -Md 2 -Ms 1 -Mt 0 
r -t 9.670779574 -Hs 2 -Hd -2 -Ni 2 -Nx 250.32 -Ny 0.70 -Nz 0.00 -Ne -1.000000 -Nl MAC -Nw --- -Ma 14ee -Md 2 -Ms 1 -Mt 0 
s -t 9.670789574 -Hs 2 -Hd -2 -Ni 2 -Nx 250.32 -Ny 0.70 -Nz 0.00 -Ne -1.000000 -Nl MAC -Nw --- -Ma 13b4 -Md 1 -Ms 0 -Mt 0 
r -t 9.671094340 -Hs 1 -Hd -2 -Ni 1 -Nx 20.56 -Ny 0.66 -Nz 0.00 -Ne -1.000000 -Nl MAC -Nw --- -Ma 13b4 -Md 1 -Ms 0 -Mt 0 
s -t 9.671104340 -Hs 1 -Hd 2 -Ni 1 -Nx 20.56 -Ny 0.66 -Nz 0.00 -Ne -1.000000 -Nl MAC -Nw --- -Ma 13a -Md 2 -Ms 1 -Mt 800 -Is 1.0 -Id 2.0 -It cbr -Il 590 -If 0 -Ii 3 -Iv 30 -Pn cbr -Pi 3 -Pf 0 -Po 16777215 
r -t 9.675825106 -Hs 2 -Hd 2 -Ni 2 -Nx 250.32 -Ny 0.70 -Nz 0.00 -Ne -1.000000 -Nl MAC -Nw --- -Ma 13a -Md 2 -Ms 1 -Mt 800 -Is 1.0 -Id 2.0 -It cbr -Il 532 -If 0 -Ii 3 -Iv 30 -Pn cbr -Pi 3 -Pf 1 -Po 16777215 
s -t 9.675835106 -Hs 2 -Hd -2 -Ni 2 -Nx 250.32 -Ny 0.70 -Nz 0.00 -Ne -1.000000 -Nl MAC -Nw --- -Ma 0 -Md 1 -Ms 0 -Mt 0 
r -t 9.675850106 -Hs 2 -Hd 2 -Ni 2 -Nx 250.32 -Ny 0.70 -Nz 0.00 -Ne -1.000000 -Nl AGT -Nw --- -Ma 13a -Md 2 -Ms 1 -Mt 800 -Is 1.0 -Id 2.0 -It cbr -Il 532 -If 0 -Ii 3 -Iv 30 -Pn cbr -Pi 3 -Pf 1 -Po 16777215 
r -t 9.676139872 -Hs 1 -Hd -2 -Ni 1 -Nx 20.56 -Ny 0.66 -Nz 0.00 -Ne -1.000000 -Nl MAC -Nw --- -Ma 0 -Md 1 -Ms 0 -Mt 0 
s -t 12.369232824 -Hs 1 -Hd -2 -Ni 1 -Nx 20.56 -Ny 0.66 -Nz 0.00 -Ne -1.000000 -Nl AGT -Nw --- -Ma 0 -Md 0 -Ms 0 -Mt 0 -Is 1.0 -Id 2.0 -It cbr -Il 512 -If 0 -Ii 4 -Iv 32 -Pn cbr -Pi 4 -Pf 0 -Po 16777215 
r -t 12.369232824 -Hs 1 -Hd -2 -Ni 1 -Nx 20.56 -Ny 0.66 -Nz 0.00 -Ne -1.000000 -Nl RTR -Nw --- -Ma 0 -Md 0 -Ms 0 -Mt 0 -Is 1.0 -Id 2.0 -It cbr -Il 512 -If 0 -Ii 4 -Iv 32 -Pn cbr -Pi 4 -Pf 0 -Po 16777215 
s -t 12.369232824 -Hs 1 -Hd 2 -Ni 1 -Nx 20.56 -Ny 0.66 -Nz 0.00 -Ne -1.000000 -Nl RTR -Nw --- -Ma 0 -Md 0 -Ms 0 -Mt 0 -Is 1.0 -Id 2.0 -It cbr -Il 532 -If 0 -Ii 4 -Iv 30 -Pn cbr -Pi 4 -Pf 0 -Po 16777215 
s -t 12.369527824 -Hs 1 -Hd -2 -Ni 1 -Nx 20.56 -Ny 0.66 -Nz 0.00 -Ne -1.000000 -Nl MAC -Nw --- -Ma 14ee -Md 2 -Ms 1 -Mt 0 
r -t 12.369880590 -Hs 2 -Hd -2 -Ni 2 -Nx 250.32 -Ny 0.70 -Nz 0.00 -Ne -1.000000 -Nl MAC -Nw --- -Ma 14ee -Md 2 -Ms 1 -Mt 0 
s -t 12.369890590 -Hs 2 -Hd -2 -Ni 2 -Nx 250.32 -Ny 0.70 -Nz 0.00 -Ne -1.000000 -Nl MAC -Nw --- -Ma 13b4 -Md 1 -Ms 0 -Mt 0 
r -t 12.370195355 -Hs 1 -Hd -2 -Ni 1 -Nx 20.56 -Ny 0.66 -Nz 0.00 -Ne -1.000000 -Nl MAC -Nw --- -Ma 13b4 -Md 1 -Ms 0 -Mt 0 
s -t 12.370205355 -Hs 1 -Hd 2 -Ni 1 -Nx 20.56 -Ny 0.66 -Nz 0.00 -Ne -1.000000 -Nl MAC -Nw --- -Ma 13a -Md 2 -Ms 1 -Mt 800 -Is 1.0 -Id 2.0 -It cbr -Il 590 -If 0 -Ii 4 -Iv 30 -Pn cbr -Pi 4 -Pf 0 -Po 16777215 
r -t 12.374926121 -Hs 2 -Hd 2 -Ni 2 -Nx 250.32 -Ny 0.70 -Nz 0.00 -Ne -1.000000 -Nl MAC -Nw --- -Ma 13a -Md 2 -Ms 1 -Mt 800 -Is 1.0 -Id 2.0 -It cbr -Il 532 -If 0 -Ii 4 -Iv 30 -Pn cbr -Pi 4 -Pf 1 -Po 16777215 
s -t 12.374936121 -Hs 2 -Hd -2 -Ni 2 -Nx 250.32 -Ny 0.70 -Nz 0.00 -Ne -1.000000 -Nl MAC -Nw --- -Ma 0 -Md 1 -Ms 0 -Mt 0 
r -t 12.374951121 -Hs 2 -Hd 2 -Ni 2 -Nx 250.32 -Ny 0.70 -Nz 0.00 -Ne -1.000000 -Nl AGT -Nw --- -Ma 13a -Md 2 -Ms 1 -Mt 800 -Is 1.0 -Id 2.0 -It cbr -Il 532 -If 0 -Ii 4 -Iv 30 -Pn cbr -Pi 4 -Pf 1 -Po 16777215 
r -t 12.375240887 -Hs 1 -Hd -2 -Ni 1 -Nx 20.56 -Ny 0.66 -Nz 0.00 -Ne -1.000000 -Nl MAC -Nw --- -Ma 0 -Md 1 -Ms 0 -Mt 0 
s -t 15.764196926 -Hs 1 -Hd -2 -Ni 1 -Nx 20.56 -Ny 0.66 -Nz 0.00 -Ne -1.000000 -Nl AGT -Nw --- -Ma 0 -Md 0 -Ms 0 -Mt 0 -Is 1.0 -Id 2.0 -It cbr -Il 512 -If 0 -Ii 5 -Iv 32 -Pn cbr -Pi 5 -Pf 0 -Po 16777215 
r -t 15.764196926 -Hs 1 -Hd -2 -Ni 1 -Nx 20.56 -Ny 0.66 -Nz 0.00 -Ne -1.000000 -Nl RTR -Nw --- -Ma 0 -Md 0 -Ms 0 -Mt 0 -Is 1.0 -Id 2.0 -It cbr -Il 512 -If 0 -Ii 5 -Iv 32 -Pn cbr -Pi 5 -Pf 0 -Po 16777215 
s -t 15.764196926 -Hs 1 -Hd 2 -Ni 1 -Nx 20.56 -Ny 0.66 -Nz 0.00 -Ne -1.000000 -Nl RTR -Nw --- -Ma 0 -Md 0 -Ms 0 -Mt 0 -Is 1.0 -Id 2.0 -It cbr -Il 532 -If 0 -Ii 5 -Iv 30 -Pn cbr -Pi 5 -Pf 0 -Po 16777215 
s -t 15.764711926 -Hs 1 -Hd -2 -Ni 1 -Nx 20.56 -Ny 0.66 -Nz 0.00 -Ne -1.000000 -Nl MAC -Nw --- -Ma 14ee -Md 2 -Ms 1 -Mt 0 
r -t 15.765064692 -Hs 2 -Hd -2 -Ni 2 -Nx 250.32 -Ny 0.70 -Nz 0.00 -Ne -1.000000 -Nl MAC -Nw --- -Ma 14ee -Md 2 -Ms 1 -Mt 0 
s -t 15.765074692 -Hs 2 -Hd -2 -Ni 2 -Nx 250.32 -Ny 0.70 -Nz 0.00 -Ne -1.000000 -Nl MAC -Nw --- -Ma 13b4 -Md 1 -Ms 0 -Mt 0 
r -t 15.765379458 -Hs 1 -Hd -2 -Ni 1 -Nx 20.56 -Ny 0.66 -Nz 0.00 -Ne -1.000000 -Nl MAC -Nw --- -Ma 13b4 -Md 1 -Ms 0 -Mt 0 
s -t 15.765389458 -Hs 1 -Hd 2 -Ni 1 -Nx 20.56 -Ny 0.66 -Nz 0.00 -Ne -1.000000 -Nl MAC -Nw --- -Ma 13a -Md 2 -Ms 1 -Mt 800 -Is 1.0 -Id 2.0 -It cbr -Il 590 -If 0 -Ii 5 -Iv 30 -Pn cbr -Pi 5 -Pf 0 -Po 16777215 
r -t 15.770110223 -Hs 2 -Hd 2 -Ni 2 -Nx 250.32 -Ny 0.70 -Nz 0.00 -Ne -1.000000 -Nl MAC -Nw --- -Ma 13a -Md 2 -Ms 1 -Mt 800 -Is 1.0 -Id 2.0 -It cbr -Il 532 -If 0 -Ii 5 -Iv 30 -Pn cbr -Pi 5 -Pf 1 -Po 16777215 
s -t 15.770120223 -Hs 2 -Hd -2 -Ni 2 -Nx 250.32 -Ny 0.70 -Nz 0.00 -Ne -1.000000 -Nl MAC -Nw --- -Ma 0 -Md 1 -Ms 0 -Mt 0 
r -t 15.770135223 -Hs 2 -Hd 2 -Ni 2 -Nx 250.32 -Ny 0.70 -Nz 0.00 -Ne -1.000000 -Nl AGT -Nw --- -Ma 13a -Md 2 -Ms 1 -Mt 800 -Is 1.0 -Id 2.0 -It cbr -Il 532 -If 0 -Ii 5 -Iv 30 -Pn cbr -Pi 5 -Pf 1 -Po 16777215 
r -t 15.770424989 -Hs 1 -Hd -2 -Ni 1 -Nx 20.56 -Ny 0.66 -Nz 0.00 -Ne -1.000000 -Nl MAC -Nw --- -Ma 0 -Md 1 -Ms 0 -Mt 0 
s -t 19.838792105 -Hs 1 -Hd -2 -Ni 1 -Nx 20.56 -Ny 0.66 -Nz 0.00 -Ne -1.000000 -Nl AGT -Nw --- -Ma 0 -Md 0 -Ms 0 -Mt 0 -Is 1.0 -Id 2.0 -It cbr -Il 512 -If 0 -Ii 6 -Iv 32 -Pn cbr -Pi 6 -Pf 0 -Po 16777215 
r -t 19.838792105 -Hs 1 -Hd -2 -Ni 1 -Nx 20.56 -Ny 0.66 -Nz 0.00 -Ne -1.000000 -Nl RTR -Nw --- -Ma 0 -Md 0 -Ms 0 -Mt 0 -Is 1.0 -Id 2.0 -It cbr -Il 512 -If 0 -Ii 6 -Iv 32 -Pn cbr -Pi 6 -Pf 0 -Po 16777215 
s -t 19.838792105 -Hs 1 -Hd 2 -Ni 1 -Nx 20.56 -Ny 0.66 -Nz 0.00 -Ne -1.000000 -Nl RTR -Nw --- -Ma 0 -Md 0 -Ms 0 -Mt 0 -Is 1.0 -Id 2.0 -It cbr -Il 532 -If 0 -Ii 6 -Iv 30 -Pn cbr -Pi 6 -Pf 0 -Po 16777215 
s -t 19.839267105 -Hs 1 -Hd -2 -Ni 1 -Nx 20.56 -Ny 0.66 -Nz 0.00 -Ne -1.000000 -Nl MAC -Nw --- -Ma 14ee -Md 2 -Ms 1 -Mt 0 
r -t 19.839619871 -Hs 2 -Hd -2 -Ni 2 -Nx 250.32 -Ny 0.70 -Nz 0.00 -Ne -1.000000 -Nl MAC -Nw --- -Ma 14ee -Md 2 -Ms 1 -Mt 0 
s -t 19.839629871 -Hs 2 -Hd -2 -Ni 2 -Nx 250.32 -Ny 0.70 -Nz 0.00 -Ne -1.000000 -Nl MAC -Nw --- -Ma 13b4 -Md 1 -Ms 0 -Mt 0 
r -t 19.839934637 -Hs 1 -Hd -2 -Ni 1 -Nx 20.56 -Ny 0.66 -Nz 0.00 -Ne -1.000000 -Nl MAC -Nw --- -Ma 13b4 -Md 1 -Ms 0 -Mt 0 
s -t 19.839944637 -Hs 1 -Hd 2 -Ni 1 -Nx 20.56 -Ny 0.66 -Nz 0.00 -Ne -1.000000 -Nl MAC -Nw --- -Ma 13a -Md 2 -Ms 1 -Mt 800 -Is 1.0 -Id 2.0 -It cbr -Il 590 -If 0 -Ii 6 -Iv 30 -Pn cbr -Pi 6 -Pf 0 -Po 16777215 
r -t 19.844665403 -Hs 2 -Hd 2 -Ni 2 -Nx 250.32 -Ny 0.70 -Nz 0.00 -Ne -1.000000 -Nl MAC -Nw --- -Ma 13a -Md 2 -Ms 1 -Mt 800 -Is 1.0 -Id 2.0 -It cbr -Il 532 -If 0 -Ii 6 -Iv 30 -Pn cbr -Pi 6 -Pf 1 -Po 16777215 
s -t 19.844675403 -Hs 2 -Hd -2 -Ni 2 -Nx 250.32 -Ny 0.70 -Nz 0.00 -Ne -1.000000 -Nl MAC -Nw --- -Ma 0 -Md 1 -Ms 0 -Mt 0 
r -t 19.844690403 -Hs 2 -Hd 2 -Ni 2 -Nx 250.32 -Ny 0.70 -Nz 0.00 -Ne -1.000000 -Nl AGT -Nw --- -Ma 13a -Md 2 -Ms 1 -Mt 800 -Is 1.0 -Id 2.0 -It cbr -Il 532 -If 0 -Ii 6 -Iv 30 -Pn cbr -Pi 6 -Pf 1 -Po 16777215 
r -t 19.844980169 -Hs 1 -Hd -2 -Ni 1 -Nx 20.56 -Ny 0.66 -Nz 0.00 -Ne -1.000000 -Nl MAC -Nw --- -Ma 0 -Md 1 -Ms 0 -Mt 0 
s -t 25.287061229 -Hs 1 -Hd -2 -Ni 1 -Nx 20.56 -Ny 0.66 -Nz 0.00 -Ne -1.000000 -Nl AGT -Nw --- -Ma 0 -Md 0 -Ms 0 -Mt 0 -Is 1.0 -Id 2.0 -It cbr -Il 512 -If 0 -Ii 7 -Iv 32 -Pn cbr -Pi 7 -Pf 0 -Po 16777215 
r -t 25.287061229 -Hs 1 -Hd -2 -Ni 1 -Nx 20.56 -Ny 0.66 -Nz 0.00 -Ne -1.000000 -Nl RTR -Nw --- -Ma 0 -Md 0 -Ms 0 -Mt 0 -Is 1.0 -Id 2.0 -It cbr -Il 512 -If 0 -Ii 7 -Iv 32 -Pn cbr -Pi 7 -Pf 0 -Po 16777215 
s -t 25.287061229 -Hs 1 -Hd 2 -Ni 1 -Nx 20.56 -Ny 0.66 -Nz 0.00 -Ne -1.000000 -Nl RTR -Nw --- -Ma 0 -Md 0 -Ms 0 -Mt 0 -Is 1.0 -Id 2.0 -It cbr -Il 532 -If 0 -Ii 7 -Iv 30 -Pn cbr -Pi 7 -Pf 0 -Po 16777215 
s -t 25.287176229 -Hs 1 -Hd -2 -Ni 1 -Nx 20.56 -Ny 0.66 -Nz 0.00 -Ne -1.000000 -Nl MAC -Nw --- -Ma 14ee -Md 2 -Ms 1 -Mt 0 
r -t 25.287528995 -Hs 2 -Hd -2 -Ni 2 -Nx 250.32 -Ny 0.70 -Nz 0.00 -Ne -1.000000 -Nl MAC -Nw --- -Ma 14ee -Md 2 -Ms 1 -Mt 0 
s -t 25.287538995 -Hs 2 -Hd -2 -Ni 2 -Nx 250.32 -Ny 0.70 -Nz 0.00 -Ne -1.000000 -Nl MAC -Nw --- -Ma 13b4 -Md 1 -Ms 0 -Mt 0 
r -t 25.287843760 -Hs 1 -Hd -2 -Ni 1 -Nx 20.56 -Ny 0.66 -Nz 0.00 -Ne -1.000000 -Nl MAC -Nw --- -Ma 13b4 -Md 1 -Ms 0 -Mt 0 
s -t 25.287853760 -Hs 1 -Hd 2 -Ni 1 -Nx 20.56 -Ny 0.66 -Nz 0.00 -Ne -1.000000 -Nl MAC -Nw --- -Ma 13a -Md 2 -Ms 1 -Mt 800 -Is 1.0 -Id 2.0 -It cbr -Il 590 -If 0 -Ii 7 -Iv 30 -Pn cbr -Pi 7 -Pf 0 -Po 16777215 
r -t 25.292574526 -Hs 2 -Hd 2 -Ni 2 -Nx 250.32 -Ny 0.70 -Nz 0.00 -Ne -1.000000 -Nl MAC -Nw --- -Ma 13a -Md 2 -Ms 1 -Mt 800 -Is 1.0 -Id 2.0 -It cbr -Il 532 -If 0 -Ii 7 -Iv 30 -Pn cbr -Pi 7 -Pf 1 -Po 16777215 
s -t 25.292584526 -Hs 2 -Hd -2 -Ni 2 -Nx 250.32 -Ny 0.70 -Nz 0.00 -Ne -1.000000 -Nl MAC -Nw --- -Ma 0 -Md 1 -Ms 0 -Mt 0 
r -t 25.292599526 -Hs 2 -Hd 2 -Ni 2 -Nx 250.32 -Ny 0.70 -Nz 0.00 -Ne -1.000000 -Nl AGT -Nw --- -Ma 13a -Md 2 -Ms 1 -Mt 800 -Is 1.0 -Id 2.0 -It cbr -Il 532 -If 0 -Ii 7 -Iv 30 -Pn cbr -Pi 7 -Pf 1 -Po 16777215 
r -t 25.292889292 -Hs 1 -Hd -2 -Ni 1 -Nx 20.56 -Ny 0.66 -Nz 0.00 -Ne -1.000000 -Nl MAC -Nw --- -Ma 0 -Md 1 -Ms 0 -Mt 0 
s -t 28.251963741 -Hs 1 -Hd -2 -Ni 1 -Nx 20.56 -Ny 0.66 -Nz 0.00 -Ne -1.000000 -Nl AGT -Nw --- -Ma 0 -Md 0 -Ms 0 -Mt 0 -Is 1.0 -Id 2.0 -It cbr -Il 512 -If 0 -Ii 8 -Iv 32 -Pn cbr -Pi 8 -Pf 0 -Po 16777215 
r -t 28.251963741 -Hs 1 -Hd -2 -Ni 1 -Nx 20.56 -Ny 0.66 -Nz 0.00 -Ne -1.000000 -Nl RTR -Nw --- -Ma 0 -Md 0 -Ms 0 -Mt 0 -Is 1.0 -Id 2.0 -It cbr -Il 512 -If 0 -Ii 8 -Iv 32 -Pn cbr -Pi 8 -Pf 0 -Po 16777215 
s -t 28.251963741 -Hs 1 -Hd 2 -Ni 1 -Nx 20.56 -Ny 0.66 -Nz 0.00 -Ne -1.000000 -Nl RTR -Nw --- -Ma 0 -Md 0 -Ms 0 -Mt 0 -Is 1.0 -Id 2.0 -It cbr -Il 532 -If 0 -Ii 8 -Iv 30 -Pn cbr -Pi 8 -Pf 0 -Po 16777215 
s -t 28.252178741 -Hs 1 -Hd -2 -Ni 1 -Nx 20.56 -Ny 0.66 -Nz 0.00 -Ne -1.000000 -Nl MAC -Nw --- -Ma 14ee -Md 2 -Ms 1 -Mt 0 
r -t 28.252531506 -Hs 2 -Hd -2 -Ni 2 -Nx 250.32 -Ny 0.70 -Nz 0.00 -Ne -1.000000 -Nl MAC -Nw --- -Ma 14ee -Md 2 -Ms 1 -Mt 0 
s -t 28.252541506 -Hs 2 -Hd -2 -Ni 2 -Nx 250.32 -Ny 0.70 -Nz 0.00 -Ne -1.000000 -Nl MAC -Nw --- -Ma 13b4 -Md 1 -Ms 0 -Mt 0 
r -t 28.252846272 -Hs 1 -Hd -2 -Ni 1 -Nx 20.56 -Ny 0.66 -Nz 0.00 -Ne -1.000000 -Nl MAC -Nw --- -Ma 13b4 -Md 1 -Ms 0 -Mt 0 
s -t 28.252856272 -Hs 1 -Hd 2 -Ni 1 -Nx 20.56 -Ny 0.66 -Nz 0.00 -Ne -1.000000 -Nl MAC -Nw --- -Ma 13a -Md 2 -Ms 1 -Mt 800 -Is 1.0 -Id 2.0 -It cbr -Il 590 -If 0 -Ii 8 -Iv 30 -Pn cbr -Pi 8 -Pf 0 -Po 16777215 
r -t 28.257577038 -Hs 2 -Hd 2 -Ni 2 -Nx 250.32 -Ny 0.70 -Nz 0.00 -Ne -1.000000 -Nl MAC -Nw --- -Ma 13a -Md 2 -Ms 1 -Mt 800 -Is 1.0 -Id 2.0 -It cbr -Il 532 -If 0 -Ii 8 -Iv 30 -Pn cbr -Pi 8 -Pf 1 -Po 16777215 
s -t 28.257587038 -Hs 2 -Hd -2 -Ni 2 -Nx 250.32 -Ny 0.70 -Nz 0.00 -Ne -1.000000 -Nl MAC -Nw --- -Ma 0 -Md 1 -Ms 0 -Mt 0 
r -t 28.257602038 -Hs 2 -Hd 2 -Ni 2 -Nx 250.32 -Ny 0.70 -Nz 0.00 -Ne -1.000000 -Nl AGT -Nw --- -Ma 13a -Md 2 -Ms 1 -Mt 800 -Is 1.0 -Id 2.0 -It cbr -Il 532 -If 0 -Ii 8 -Iv 30 -Pn cbr -Pi 8 -Pf 1 -Po 16777215 
r -t 28.257891804 -Hs 1 -Hd -2 -Ni 1 -Nx 20.56 -Ny 0.66 -Nz 0.00 -Ne -1.000000 -Nl MAC -Nw --- -Ma 0 -Md 1 -Ms 0 -Mt 0 
s -t 33.300891312 -Hs 1 -Hd -2 -Ni 1 -Nx 20.56 -Ny 0.66 -Nz 0.00 -Ne -1.000000 -Nl AGT -Nw --- -Ma 0 -Md 0 -Ms 0 -Mt 0 -Is 1.0 -Id 2.0 -It cbr -Il 512 -If 0 -Ii 9 -Iv 32 -Pn cbr -Pi 9 -Pf 0 -Po 16777215 
r -t 33.300891312 -Hs 1 -Hd -2 -Ni 1 -Nx 20.56 -Ny 0.66 -Nz 0.00 -Ne -1.000000 -Nl RTR -Nw --- -Ma 0 -Md 0 -Ms 0 -Mt 0 -Is 1.0 -Id 2.0 -It cbr -Il 512 -If 0 -Ii 9 -Iv 32 -Pn cbr -Pi 9 -Pf 0 -Po 16777215 
s -t 33.300891312 -Hs 1 -Hd 2 -Ni 1 -Nx 20.56 -Ny 0.66 -Nz 0.00 -Ne -1.000000 -Nl RTR -Nw --- -Ma 0 -Md 0 -Ms 0 -Mt 0 -Is 1.0 -Id 2.0 -It cbr -Il 532 -If 0 -Ii 9 -Iv 30 -Pn cbr -Pi 9 -Pf 0 -Po 16777215 
s -t 33.301166312 -Hs 1 -Hd -2 -Ni 1 -Nx 20.56 -Ny 0.66 -Nz 0.00 -Ne -1.000000 -Nl MAC -Nw --- -Ma 14ee -Md 2 -Ms 1 -Mt 0 
r -t 33.301519078 -Hs 2 -Hd -2 -Ni 2 -Nx 250.32 -Ny 0.70 -Nz 0.00 -Ne -1.000000 -Nl MAC -Nw --- -Ma 14ee -Md 2 -Ms 1 -Mt 0 
s -t 33.301529078 -Hs 2 -Hd -2 -Ni 2 -Nx 250.32 -Ny 0.70 -Nz 0.00 -Ne -1.000000 -Nl MAC -Nw --- -Ma 13b4 -Md 1 -Ms 0 -Mt 0 
r -t 33.301833844 -Hs 1 -Hd -2 -Ni 1 -Nx 20.56 -Ny 0.66 -Nz 0.00 -Ne -1.000000 -Nl MAC -Nw --- -Ma 13b4 -Md 1 -Ms 0 -Mt 0 
s -t 33.301843844 -Hs 1 -Hd 2 -Ni 1 -Nx 20.56 -Ny 0.66 -Nz 0.00 -Ne -1.000000 -Nl MAC -Nw --- -Ma 13a -Md 2 -Ms 1 -Mt 800 -Is 1.0 -Id 2.0 -It cbr -Il 590 -If 0 -Ii 9 -Iv 30 -Pn cbr -Pi 9 -Pf 0 -Po 16777215 
r -t 33.306564609 -Hs 2 -Hd 2 -Ni 2 -Nx 250.32 -Ny 0.70 -Nz 0.00 -Ne -1.000000 -Nl MAC -Nw --- -Ma 13a -Md 2 -Ms 1 -Mt 800 -Is 1.0 -Id 2.0 -It cbr -Il 532 -If 0 -Ii 9 -Iv 30 -Pn cbr -Pi 9 -Pf 1 -Po 16777215 
s -t 33.306574609 -Hs 2 -Hd -2 -Ni 2 -Nx 250.32 -Ny 0.70 -Nz 0.00 -Ne -1.000000 -Nl MAC -Nw --- -Ma 0 -Md 1 -Ms 0 -Mt 0 
r -t 33.306589609 -Hs 2 -Hd 2 -Ni 2 -Nx 250.32 -Ny 0.70 -Nz 0.00 -Ne -1.000000 -Nl AGT -Nw --- -Ma 13a -Md 2 -Ms 1 -Mt 800 -Is 1.0 -Id 2.0 -It cbr -Il 532 -If 0 -Ii 9 -Iv 30 -Pn cbr -Pi 9 -Pf 1 -Po 16777215 
r -t 33.306879375 -Hs 1 -Hd -2 -Ni 1 -Nx 20.56 -Ny 0.66 -Nz 0.00 -Ne -1.000000 -Nl MAC -Nw --- -Ma 0 -Md 1 -Ms 0 -Mt 0 
s -t 35.737685200 -Hs 1 -Hd -2 -Ni 1 -Nx 20.56 -Ny 0.66 -Nz 0.00 -Ne -1.000000 -Nl AGT -Nw --- -Ma 0 -Md 0 -Ms 0 -Mt 0 -Is 1.0 -Id 2.0 -It cbr -Il 512 -If 0 -Ii 10 -Iv 32 -Pn cbr -Pi 10 -Pf 0 -Po 16777215 
r -t 35.737685200 -Hs 1 -Hd -2 -Ni 1 -Nx 20.56 -Ny 0.66 -Nz 0.00 -Ne -1.000000 -Nl RTR -Nw --- -Ma 0 -Md 0 -Ms 0 -Mt 0 -Is 1.0 -Id 2.0 -It cbr -Il 512 -If 0 -Ii 10 -Iv 32 -Pn cbr -Pi 10 -Pf 0 -Po 16777215 
s -t 35.737685200 -Hs 1 -Hd 2 -Ni 1 -Nx 20.56 -Ny 0.66 -Nz 0.00 -Ne -1.000000 -Nl RTR -Nw --- -Ma 0 -Md 0 -Ms 0 -Mt 0 -Is 1.0 -Id 2.0 -It cbr -Il 532 -If 0 -Ii 10 -Iv 30 -Pn cbr -Pi 10 -Pf 0 -Po 16777215 
s -t 35.737980200 -Hs 1 -Hd -2 -Ni 1 -Nx 20.56 -Ny 0.66 -Nz 0.00 -Ne -1.000000 -Nl MAC -Nw --- -Ma 14ee -Md 2 -Ms 1 -Mt 0 
r -t 35.738332965 -Hs 2 -Hd -2 -Ni 2 -Nx 250.32 -Ny 0.70 -Nz 0.00 -Ne -1.000000 -Nl MAC -Nw --- -Ma 14ee -Md 2 -Ms 1 -Mt 0 
s -t 35.738342965 -Hs 2 -Hd -2 -Ni 2 -Nx 250.32 -Ny 0.70 -Nz 0.00 -Ne -1.000000 -Nl MAC -Nw --- -Ma 13b4 -Md 1 -Ms 0 -Mt 0 
r -t 35.738647731 -Hs 1 -Hd -2 -Ni 1 -Nx 20.56 -Ny 0.66 -Nz 0.00 -Ne -1.000000 -Nl MAC -Nw --- -Ma 13b4 -Md 1 -Ms 0 -Mt 0 
s -t 35.738657731 -Hs 1 -Hd 2 -Ni 1 -Nx 20.56 -Ny 0.66 -Nz 0.00 -Ne -1.000000 -Nl MAC -Nw --- -Ma 13a -Md 2 -Ms 1 -Mt 800 -Is 1.0 -Id 2.0 -It cbr -Il 590 -If 0 -Ii 10 -Iv 30 -Pn cbr -Pi 10 -Pf 0 -Po 16777215 
r -t 35.743378497 -Hs 2 -Hd 2 -Ni 2 -Nx 250.32 -Ny 0.70 -Nz 0.00 -Ne -1.000000 -Nl MAC -Nw --- -Ma 13a -Md 2 -Ms 1 -Mt 800 -Is 1.0 -Id 2.0 -It cbr -Il 532 -If 0 -Ii 10 -Iv 30 -Pn cbr -Pi 10 -Pf 1 -Po 16777215 
s -t 35.743388497 -Hs 2 -Hd -2 -Ni 2 -Nx 250.32 -Ny 0.70 -Nz 0.00 -Ne -1.000000 -Nl MAC -Nw --- -Ma 0 -Md 1 -Ms 0 -Mt 0 
r -t 35.743403497 -Hs 2 -Hd 2 -Ni 2 -Nx 250.32 -Ny 0.70 -Nz 0.00 -Ne -1.000000 -Nl AGT -Nw --- -Ma 13a -Md 2 -Ms 1 -Mt 800 -Is 1.0 -Id 2.0 -It cbr -Il 532 -If 0 -Ii 10 -Iv 30 -Pn cbr -Pi 10 -Pf 1 -Po 16777215 
r -t 35.743693263 -Hs 1 -Hd -2 -Ni 1 -Nx 20.56 -Ny 0.66 -Nz 0.00 -Ne -1.000000 -Nl MAC -Nw --- -Ma 0 -Md 1 -Ms 0 -Mt 0 
s -t 41.287459384 -Hs 1 -Hd -2 -Ni 1 -Nx 20.56 -Ny 0.66 -Nz 0.00 -Ne -1.000000 -Nl AGT -Nw --- -Ma 0 -Md 0 -Ms 0 -Mt 0 -Is 1.0 -Id 2.0 -It cbr -Il 512 -If 0 -Ii 11 -Iv 32 -Pn cbr -Pi 11 -Pf 0 -Po 16777215 
r -t 41.287459384 -Hs 1 -Hd -2 -Ni 1 -Nx 20.56 -Ny 0.66 -Nz 0.00 -Ne -1.000000 -Nl RTR -Nw --- -Ma 0 -Md 0 -Ms 0 -Mt 0 -Is 1.0 -Id 2.0 -It cbr -Il 512 -If 0 -Ii 11 -Iv 32 -Pn cbr -Pi 11 -Pf 0 -Po 16777215 
s -t 41.287459384 -Hs 1 -Hd 2 -Ni 1 -Nx 20.56 -Ny 0.66 -Nz 0.00 -Ne -1.000000 -Nl RTR -Nw --- -Ma 0 -Md 0 -Ms 0 -Mt 0 -Is 1.0 -Id 2.0 -It cbr -Il 532 -If 0 -Ii 11 -Iv 30 -Pn cbr -Pi 11 -Pf 0 -Po 16777215 
s -t 41.287594384 -Hs 1 -Hd -2 -Ni 1 -Nx 20.56 -Ny 0.66 -Nz 0.00 -Ne -1.000000 -Nl MAC -Nw --- -Ma 14ee -Md 2 -Ms 1 -Mt 0 
r -t 41.287947150 -Hs 2 -Hd -2 -Ni 2 -Nx 250.32 -Ny 0.70 -Nz 0.00 -Ne -1.000000 -Nl MAC -Nw --- -Ma 14ee -Md 2 -Ms 1 -Mt 0 
s -t 41.287957150 -Hs 2 -Hd -2 -Ni 2 -Nx 250.32 -Ny 0.70 -Nz 0.00 -Ne -1.000000 -Nl MAC -Nw --- -Ma 13b4 -Md 1 -Ms 0 -Mt 0 
r -t 41.288261916 -Hs 1 -Hd -2 -Ni 1 -Nx 20.56 -Ny 0.66 -Nz 0.00 -Ne -1.000000 -Nl MAC -Nw --- -Ma 13b4 -Md 1 -Ms 0 -Mt 0 
s -t 41.288271916 -Hs 1 -Hd 2 -Ni 1 -Nx 20.56 -Ny 0.66 -Nz 0.00 -Ne -1.000000 -Nl MAC -Nw --- -Ma 13a -Md 2 -Ms 1 -Mt 800 -Is 1.0 -Id 2.0 -It cbr -Il 590 -If 0 -Ii 11 -Iv 30 -Pn cbr -Pi 11 -Pf 0 -Po 16777215 
r -t 41.292992682 -Hs 2 -Hd 2 -Ni 2 -Nx 250.32 -Ny 0.70 -Nz 0.00 -Ne -1.000000 -Nl MAC -Nw --- -Ma 13a -Md 2 -Ms 1 -Mt 800 -Is 1.0 -Id 2.0 -It cbr -Il 532 -If 0 -Ii 11 -Iv 30 -Pn cbr -Pi 11 -Pf 1 -Po 16777215 
s -t 41.293002682 -Hs 2 -Hd -2 -Ni 2 -Nx 250.32 -Ny 0.70 -Nz 0.00 -Ne -1.000000 -Nl MAC -Nw --- -Ma 0 -Md 1 -Ms 0 -Mt 0 